<?xml version="1.0" encoding="UTF-8"?>

<!-- generated on ter 01 out 2019 13:03:24 -03 by SUMO gui Version 0.32.0
<?xml version="1.0" encoding="UTF-8"?>

<configuration xmlns:xsi="http://www.w3.org/2001/XMLSchema-instance" xsi:noNamespaceSchemaLocation="http://sumo.dlr.de/xsd/sumoConfiguration.xsd">

    <input>
        <net-file value="usp.net.xml"/>
        <route-files value="usp2.rou.xml"/>
    </input>

    <output>
        <tripinfo-output value="tripinfo.xml"/>
    </output>

    <time>
        <begin value="0"/>
        <end value="10000"/>
    </time>

    <traci_server>
        <remote-port value="33167"/>
    </traci_server>

    <gui_only>
        <gui-settings-file value="usp.settings.xml"/>
    </gui_only>

</configuration>
-->

<tripinfos xmlns:xsi="http://www.w3.org/2001/XMLSchema-instance" xsi:noNamespaceSchemaLocation="http://sumo.dlr.de/xsd/tripinfo_file.xsd">
    <tripinfo id="13" depart="13.00" departLane="-79211446#0_0" departPos="5.10" departSpeed="0.00" departDelay="0.00" arrival="78.00" arrivalLane="-474144564_0" arrivalPos="5.41" arrivalSpeed="7.38" duration="65.00" routeLength="761.76" waitSteps="0" timeLoss="10.14" rerouteNo="0" devices="tripinfo_13" vType="DEFAULT_VEHTYPE" speedFactor="1.00" vaporized=""/>
    <tripinfo id="33" depart="33.00" departLane="-263536610#0_0" departPos="5.10" departSpeed="0.00" departDelay="0.00" arrival="91.00" arrivalLane="155225412#2_0" arrivalPos="33.17" arrivalSpeed="13.46" duration="58.00" routeLength="518.03" waitSteps="0" timeLoss="8.97" rerouteNo="0" devices="tripinfo_33" vType="DEFAULT_VEHTYPE" speedFactor="1.00" vaporized=""/>
    <tripinfo id="60" depart="60.00" departLane="-147921592#2_0" departPos="5.10" departSpeed="0.00" departDelay="0.00" arrival="92.00" arrivalLane="396360054_0" arrivalPos="52.29" arrivalSpeed="13.70" duration="32.00" routeLength="330.21" waitSteps="0" timeLoss="8.08" rerouteNo="0" devices="tripinfo_60" vType="DEFAULT_VEHTYPE" speedFactor="1.00" vaporized=""/>
    <tripinfo id="39" depart="41.00" departLane="-267121806#1_0" departPos="5.10" departSpeed="0.00" departDelay="2.00" arrival="103.00" arrivalLane="28504807#9_1" arrivalPos="187.02" arrivalSpeed="26.55" duration="62.00" routeLength="779.49" waitSteps="0" timeLoss="19.18" rerouteNo="0" devices="tripinfo_39" vType="DEFAULT_VEHTYPE" speedFactor="1.00" vaporized=""/>
    <tripinfo id="73" depart="73.00" departLane="151615196#1_0" departPos="4.92" departSpeed="0.00" departDelay="0.00" arrival="117.00" arrivalLane="158621099#16_1" arrivalPos="199.56" arrivalSpeed="10.22" duration="44.00" routeLength="406.81" waitSteps="0" timeLoss="11.07" rerouteNo="0" devices="tripinfo_73" vType="DEFAULT_VEHTYPE" speedFactor="1.00" vaporized=""/>
    <tripinfo id="50" depart="50.00" departLane="396357992#1_0" departPos="5.10" departSpeed="0.00" departDelay="0.00" arrival="131.00" arrivalLane="147921606_0" arrivalPos="80.32" arrivalSpeed="12.77" duration="81.00" routeLength="1215.00" waitSteps="0" timeLoss="14.96" rerouteNo="0" devices="tripinfo_50" vType="DEFAULT_VEHTYPE" speedFactor="1.00" vaporized=""/>
    <tripinfo id="101" depart="101.00" departLane="263536599#1_0" departPos="5.10" departSpeed="0.00" departDelay="0.00" arrival="137.00" arrivalLane="396355608#0_0" arrivalPos="93.53" arrivalSpeed="13.79" duration="36.00" routeLength="292.31" waitSteps="0" timeLoss="8.46" rerouteNo="0" devices="tripinfo_101" vType="DEFAULT_VEHTYPE" speedFactor="1.00" vaporized=""/>
    <tripinfo id="29" depart="29.00" departLane="108052762#0_0" departPos="5.10" departSpeed="0.00" departDelay="0.00" arrival="140.00" arrivalLane="174392487#0_0" arrivalPos="497.36" arrivalSpeed="12.71" duration="111.00" routeLength="1435.70" waitSteps="0" timeLoss="7.28" rerouteNo="0" devices="tripinfo_29" vType="DEFAULT_VEHTYPE" speedFactor="1.00" vaporized=""/>
    <tripinfo id="110" depart="110.00" departLane="-426838402_0" departPos="0.15" departSpeed="0.00" departDelay="0.00" arrival="140.00" arrivalLane="-544343924#0_0" arrivalPos="59.20" arrivalSpeed="13.59" duration="30.00" routeLength="348.65" waitSteps="0" timeLoss="4.69" rerouteNo="0" devices="tripinfo_110" vType="DEFAULT_VEHTYPE" speedFactor="1.00" vaporized=""/>
    <tripinfo id="53" depart="53.00" departLane="79210643#4_0" departPos="5.10" departSpeed="0.00" departDelay="0.00" arrival="148.00" arrivalLane="108052761#7_0" arrivalPos="34.75" arrivalSpeed="13.26" duration="95.00" routeLength="1215.83" waitSteps="0" timeLoss="7.09" rerouteNo="0" devices="tripinfo_53" vType="DEFAULT_VEHTYPE" speedFactor="1.00" vaporized=""/>
    <tripinfo id="54" depart="54.00" departLane="-224370081#0_0" departPos="5.10" departSpeed="0.00" departDelay="0.00" arrival="169.00" arrivalLane="494677111#1_0" arrivalPos="96.64" arrivalSpeed="13.44" duration="115.00" routeLength="832.64" waitSteps="35" timeLoss="54.34" rerouteNo="0" devices="tripinfo_54" vType="DEFAULT_VEHTYPE" speedFactor="1.00" vaporized=""/>
    <tripinfo id="121" depart="121.00" departLane="147921592#0_0" departPos="5.10" departSpeed="0.00" departDelay="0.00" arrival="172.00" arrivalLane="-146627238#2_0" arrivalPos="83.34" arrivalSpeed="13.70" duration="51.00" routeLength="616.03" waitSteps="0" timeLoss="6.41" rerouteNo="0" devices="tripinfo_121" vType="DEFAULT_VEHTYPE" speedFactor="1.00" vaporized=""/>
    <tripinfo id="71" depart="71.00" departLane="451574737#0_0" departPos="5.10" departSpeed="0.00" departDelay="0.00" arrival="173.00" arrivalLane="-544343924#1_0" arrivalPos="9.82" arrivalSpeed="13.30" duration="102.00" routeLength="1283.84" waitSteps="0" timeLoss="15.26" rerouteNo="0" devices="tripinfo_71" vType="DEFAULT_VEHTYPE" speedFactor="1.00" vaporized=""/>
    <tripinfo id="36" depart="36.00" departLane="61132766#9_0" departPos="5.10" departSpeed="0.00" departDelay="0.00" arrival="194.00" arrivalLane="-296579358_0" arrivalPos="28.93" arrivalSpeed="13.83" duration="158.00" routeLength="1744.47" waitSteps="0" timeLoss="20.56" rerouteNo="0" devices="tripinfo_36" vType="DEFAULT_VEHTYPE" speedFactor="1.00" vaporized=""/>
    <tripinfo id="162" depart="162.00" departLane="108052761#9_0" departPos="5.10" departSpeed="0.00" departDelay="0.00" arrival="195.00" arrivalLane="-108052761#6_0" arrivalPos="155.05" arrivalSpeed="13.24" duration="33.00" routeLength="364.89" waitSteps="0" timeLoss="5.96" rerouteNo="0" devices="tripinfo_162" vType="DEFAULT_VEHTYPE" speedFactor="1.00" vaporized=""/>
    <tripinfo id="140" depart="140.00" departLane="146627238#1_0" departPos="5.10" departSpeed="0.00" departDelay="0.00" arrival="198.00" arrivalLane="28504807#9_0" arrivalPos="187.02" arrivalSpeed="27.62" duration="58.00" routeLength="980.49" waitSteps="0" timeLoss="9.88" rerouteNo="0" devices="tripinfo_140" vType="DEFAULT_VEHTYPE" speedFactor="1.00" vaporized=""/>
    <tripinfo id="22" depart="22.00" departLane="263536610#2_0" departPos="5.10" departSpeed="0.00" departDelay="0.00" arrival="201.00" arrivalLane="153489134_1" arrivalPos="39.36" arrivalSpeed="13.69" duration="179.00" routeLength="2131.96" waitSteps="0" timeLoss="23.08" rerouteNo="0" devices="tripinfo_22" vType="DEFAULT_VEHTYPE" speedFactor="1.00" vaporized=""/>
    <tripinfo id="37" depart="37.00" departLane="590647263#1_0" departPos="5.10" departSpeed="0.00" departDelay="0.00" arrival="207.00" arrivalLane="-153489143_0" arrivalPos="2.88" arrivalSpeed="8.04" duration="170.00" routeLength="1383.24" waitSteps="42" timeLoss="69.44" rerouteNo="0" devices="tripinfo_37" vType="DEFAULT_VEHTYPE" speedFactor="1.00" vaporized=""/>
    <tripinfo id="157" depart="157.00" departLane="-296585974#1_0" departPos="5.10" departSpeed="0.00" departDelay="0.00" arrival="211.00" arrivalLane="472255625_0" arrivalPos="19.52" arrivalSpeed="13.56" duration="54.00" routeLength="400.33" waitSteps="0" timeLoss="8.11" rerouteNo="0" devices="tripinfo_157" vType="DEFAULT_VEHTYPE" speedFactor="1.00" vaporized=""/>
    <tripinfo id="118" depart="118.00" departLane="-153489143_0" departPos="2.88" departSpeed="0.00" departDelay="0.00" arrival="213.00" arrivalLane="171279286#7_0" arrivalPos="59.33" arrivalSpeed="10.73" duration="95.00" routeLength="1079.81" waitSteps="0" timeLoss="10.84" rerouteNo="0" devices="tripinfo_118" vType="DEFAULT_VEHTYPE" speedFactor="1.00" vaporized=""/>
    <tripinfo id="142" depart="142.00" departLane="-474144564_0" departPos="5.10" departSpeed="0.00" departDelay="0.00" arrival="217.00" arrivalLane="-108052763#2_0" arrivalPos="36.32" arrivalSpeed="13.40" duration="75.00" routeLength="929.74" waitSteps="0" timeLoss="7.73" rerouteNo="0" devices="tripinfo_142" vType="DEFAULT_VEHTYPE" speedFactor="1.00" vaporized=""/>
    <tripinfo id="19" depart="19.00" departLane="-296586084#0_0" departPos="5.10" departSpeed="0.00" departDelay="0.00" arrival="225.00" arrivalLane="296580400#0_0" arrivalPos="39.06" arrivalSpeed="21.04" duration="206.00" routeLength="2340.52" waitSteps="0" timeLoss="24.74" rerouteNo="0" devices="tripinfo_19" vType="DEFAULT_VEHTYPE" speedFactor="1.00" vaporized=""/>
    <tripinfo id="161" depart="161.00" departLane="396354562_0" departPos="0.20" departSpeed="0.00" departDelay="0.00" arrival="229.00" arrivalLane="147921556#1_0" arrivalPos="155.83" arrivalSpeed="12.71" duration="68.00" routeLength="667.02" waitSteps="1" timeLoss="20.10" rerouteNo="0" devices="tripinfo_161" vType="DEFAULT_VEHTYPE" speedFactor="1.00" vaporized=""/>
    <tripinfo id="85" depart="85.00" departLane="158621100#2_0" departPos="3.93" departSpeed="0.00" departDelay="0.00" arrival="230.00" arrivalLane="158621544#5_0" arrivalPos="149.26" arrivalSpeed="10.45" duration="145.00" routeLength="1260.28" waitSteps="0" timeLoss="16.32" rerouteNo="0" devices="tripinfo_85" vType="DEFAULT_VEHTYPE" speedFactor="1.00" vaporized=""/>
    <tripinfo id="115" depart="115.00" departLane="158607002#0_0" departPos="5.10" departSpeed="0.00" departDelay="0.00" arrival="231.00" arrivalLane="171279264_0" arrivalPos="31.52" arrivalSpeed="21.60" duration="116.00" routeLength="1375.69" waitSteps="0" timeLoss="17.10" rerouteNo="0" devices="tripinfo_115" vType="DEFAULT_VEHTYPE" speedFactor="1.00" vaporized=""/>
    <tripinfo id="99" depart="99.00" departLane="158604480#4_0" departPos="0.20" departSpeed="0.00" departDelay="0.00" arrival="235.00" arrivalLane="430391003#0_0" arrivalPos="109.15" arrivalSpeed="10.53" duration="136.00" routeLength="1394.05" waitSteps="0" timeLoss="13.38" rerouteNo="0" devices="tripinfo_99" vType="DEFAULT_VEHTYPE" speedFactor="1.00" vaporized=""/>
    <tripinfo id="158" depart="158.00" departLane="28504807#5_0" departPos="5.10" departSpeed="0.00" departDelay="0.00" arrival="236.00" arrivalLane="155225412#5_0" arrivalPos="30.60" arrivalSpeed="13.59" duration="78.00" routeLength="1044.80" waitSteps="0" timeLoss="21.37" rerouteNo="0" devices="tripinfo_158" vType="DEFAULT_VEHTYPE" speedFactor="1.00" vaporized=""/>
    <tripinfo id="79" depart="79.00" departLane="-224370082_0" departPos="0.20" departSpeed="0.00" departDelay="0.00" arrival="236.00" arrivalLane="296584556_0" arrivalPos="23.10" arrivalSpeed="15.31" duration="157.00" routeLength="1541.27" waitSteps="27" timeLoss="46.08" rerouteNo="0" devices="tripinfo_79" vType="DEFAULT_VEHTYPE" speedFactor="1.00" vaporized=""/>
    <tripinfo id="6" depart="6.00" departLane="-296586084#0_0" departPos="5.10" departSpeed="0.00" departDelay="0.00" arrival="237.00" arrivalLane="158607008#7_1" arrivalPos="4.51" arrivalSpeed="10.52" duration="231.00" routeLength="2312.78" waitSteps="5" timeLoss="38.89" rerouteNo="0" devices="tripinfo_6" vType="DEFAULT_VEHTYPE" speedFactor="1.00" vaporized=""/>
    <tripinfo id="64" depart="64.00" departLane="158621099#11_0" departPos="5.10" departSpeed="0.00" departDelay="0.00" arrival="243.00" arrivalLane="147278371_0" arrivalPos="339.66" arrivalSpeed="10.13" duration="179.00" routeLength="1752.16" waitSteps="2" timeLoss="26.14" rerouteNo="0" devices="tripinfo_64" vType="DEFAULT_VEHTYPE" speedFactor="1.00" vaporized=""/>
    <tripinfo id="55" depart="55.00" departLane="296577872_0" departPos="5.10" departSpeed="0.00" departDelay="0.00" arrival="245.00" arrivalLane="158621099#9_1" arrivalPos="34.19" arrivalSpeed="10.60" duration="190.00" routeLength="2014.78" waitSteps="0" timeLoss="20.02" rerouteNo="0" devices="tripinfo_55" vType="DEFAULT_VEHTYPE" speedFactor="1.00" vaporized=""/>
    <tripinfo id="130" depart="130.00" departLane="123051887_0" departPos="5.10" departSpeed="0.00" departDelay="0.00" arrival="246.00" arrivalLane="348777604#2_0" arrivalPos="43.74" arrivalSpeed="13.11" duration="116.00" routeLength="1405.17" waitSteps="0" timeLoss="14.07" rerouteNo="0" devices="tripinfo_130" vType="DEFAULT_VEHTYPE" speedFactor="1.00" vaporized=""/>
    <tripinfo id="80" depart="80.00" departLane="154205425_0" departPos="5.10" departSpeed="0.00" departDelay="0.00" arrival="248.00" arrivalLane="182700085_0" arrivalPos="20.93" arrivalSpeed="13.54" duration="168.00" routeLength="1701.54" waitSteps="1" timeLoss="17.83" rerouteNo="0" devices="tripinfo_80" vType="DEFAULT_VEHTYPE" speedFactor="1.00" vaporized=""/>
    <tripinfo id="103" depart="103.00" departLane="158607008#8_0" departPos="5.10" departSpeed="0.00" departDelay="0.00" arrival="253.00" arrivalLane="-147921608#2_0" arrivalPos="31.56" arrivalSpeed="13.64" duration="150.00" routeLength="1836.63" waitSteps="0" timeLoss="18.36" rerouteNo="0" devices="tripinfo_103" vType="DEFAULT_VEHTYPE" speedFactor="1.00" vaporized=""/>
    <tripinfo id="159" depart="159.00" departLane="171279289#0_0" departPos="5.10" departSpeed="0.00" departDelay="0.00" arrival="255.00" arrivalLane="171279316#1_0" arrivalPos="27.87" arrivalSpeed="13.07" duration="96.00" routeLength="959.39" waitSteps="0" timeLoss="14.24" rerouteNo="0" devices="tripinfo_159" vType="DEFAULT_VEHTYPE" speedFactor="1.00" vaporized=""/>
    <tripinfo id="26" depart="26.00" departLane="171279307#9_0" departPos="5.10" departSpeed="0.00" departDelay="0.00" arrival="256.00" arrivalLane="158621100#3_0" arrivalPos="4.07" arrivalSpeed="10.43" duration="230.00" routeLength="2338.79" waitSteps="0" timeLoss="27.10" rerouteNo="0" devices="tripinfo_26" vType="DEFAULT_VEHTYPE" speedFactor="1.00" vaporized=""/>
    <tripinfo id="87" depart="140.00" departLane="396357992#1_0" departPos="5.10" departSpeed="0.00" departDelay="53.00" arrival="259.00" arrivalLane="149888648#0_0" arrivalPos="176.94" arrivalSpeed="13.10" duration="119.00" routeLength="1096.69" waitSteps="24" timeLoss="51.57" rerouteNo="0" devices="tripinfo_87" vType="DEFAULT_VEHTYPE" speedFactor="1.00" vaporized=""/>
    <tripinfo id="172" depart="172.00" departLane="158604480#3_0" departPos="5.10" departSpeed="0.00" departDelay="0.00" arrival="259.00" arrivalLane="26780402#2_0" arrivalPos="43.35" arrivalSpeed="10.48" duration="87.00" routeLength="916.12" waitSteps="0" timeLoss="10.96" rerouteNo="0" devices="tripinfo_172" vType="DEFAULT_VEHTYPE" speedFactor="1.00" vaporized=""/>
    <tripinfo id="23" depart="23.00" departLane="158607006_0" departPos="5.10" departSpeed="0.00" departDelay="0.00" arrival="262.00" arrivalLane="-153489143_0" arrivalPos="2.88" arrivalSpeed="7.31" duration="239.00" routeLength="2775.71" waitSteps="0" timeLoss="26.98" rerouteNo="0" devices="tripinfo_23" vType="DEFAULT_VEHTYPE" speedFactor="1.00" vaporized=""/>
    <tripinfo id="57" depart="57.00" departLane="61132766#9_0" departPos="5.10" departSpeed="0.00" departDelay="0.00" arrival="264.00" arrivalLane="-152411187#6_0" arrivalPos="80.18" arrivalSpeed="9.91" duration="207.00" routeLength="2384.79" waitSteps="0" timeLoss="22.86" rerouteNo="0" devices="tripinfo_57" vType="DEFAULT_VEHTYPE" speedFactor="1.00" vaporized=""/>
    <tripinfo id="5" depart="5.00" departLane="158604480#7_0" departPos="5.10" departSpeed="0.00" departDelay="0.00" arrival="268.00" arrivalLane="402178719_0" arrivalPos="13.13" arrivalSpeed="15.62" duration="263.00" routeLength="2860.04" waitSteps="0" timeLoss="24.20" rerouteNo="0" devices="tripinfo_5" vType="DEFAULT_VEHTYPE" speedFactor="1.00" vaporized=""/>
    <tripinfo id="178" depart="178.00" departLane="158607004#2_0" departPos="3.95" departSpeed="0.00" departDelay="0.00" arrival="271.00" arrivalLane="296580396#0_0" arrivalPos="17.21" arrivalSpeed="10.63" duration="93.00" routeLength="1007.12" waitSteps="0" timeLoss="12.22" rerouteNo="0" devices="tripinfo_178" vType="DEFAULT_VEHTYPE" speedFactor="1.00" vaporized=""/>
    <tripinfo id="177" depart="177.00" departLane="-296579359#1_0" departPos="5.10" departSpeed="0.00" departDelay="0.00" arrival="276.00" arrivalLane="158621099#9_0" arrivalPos="34.19" arrivalSpeed="10.69" duration="99.00" routeLength="889.12" waitSteps="0" timeLoss="14.46" rerouteNo="0" devices="tripinfo_177" vType="DEFAULT_VEHTYPE" speedFactor="1.00" vaporized=""/>
    <tripinfo id="24" depart="24.00" departLane="-152411187#3_0" departPos="5.10" departSpeed="0.00" departDelay="0.00" arrival="277.00" arrivalLane="154205422_0" arrivalPos="12.73" arrivalSpeed="10.56" duration="253.00" routeLength="2591.88" waitSteps="0" timeLoss="25.91" rerouteNo="0" devices="tripinfo_24" vType="DEFAULT_VEHTYPE" speedFactor="1.00" vaporized=""/>
    <tripinfo id="237" depart="237.00" departLane="-146627237_0" departPos="5.10" departSpeed="0.00" departDelay="0.00" arrival="279.00" arrivalLane="149121809#0_0" arrivalPos="50.48" arrivalSpeed="12.68" duration="42.00" routeLength="385.80" waitSteps="0" timeLoss="13.99" rerouteNo="0" devices="tripinfo_237" vType="DEFAULT_VEHTYPE" speedFactor="1.00" vaporized=""/>
    <tripinfo id="122" depart="122.00" departLane="158621103#6_1" departPos="5.10" departSpeed="0.00" departDelay="0.00" arrival="284.00" arrivalLane="296586087#6_0" arrivalPos="165.62" arrivalSpeed="10.75" duration="162.00" routeLength="1735.75" waitSteps="0" timeLoss="15.42" rerouteNo="0" devices="tripinfo_122" vType="DEFAULT_VEHTYPE" speedFactor="1.00" vaporized=""/>
    <tripinfo id="69" depart="69.00" departLane="-495777432_0" departPos="5.10" departSpeed="0.00" departDelay="0.00" arrival="285.00" arrivalLane="158604480#15_0" arrivalPos="34.54" arrivalSpeed="10.51" duration="216.00" routeLength="2322.37" waitSteps="0" timeLoss="24.48" rerouteNo="0" devices="tripinfo_69" vType="DEFAULT_VEHTYPE" speedFactor="1.00" vaporized=""/>
    <tripinfo id="106" depart="106.00" departLane="158607004#3_0" departPos="5.10" departSpeed="0.00" departDelay="0.00" arrival="286.00" arrivalLane="396827403_0" arrivalPos="12.15" arrivalSpeed="19.19" duration="180.00" routeLength="1900.17" waitSteps="0" timeLoss="22.42" rerouteNo="0" devices="tripinfo_106" vType="DEFAULT_VEHTYPE" speedFactor="1.00" vaporized=""/>
    <tripinfo id="107" depart="107.00" departLane="61132757_0" departPos="5.10" departSpeed="0.00" departDelay="0.00" arrival="290.00" arrivalLane="182700081_1" arrivalPos="25.06" arrivalSpeed="10.87" duration="183.00" routeLength="1890.29" waitSteps="0" timeLoss="22.28" rerouteNo="0" devices="tripinfo_107" vType="DEFAULT_VEHTYPE" speedFactor="1.00" vaporized=""/>
    <tripinfo id="188" depart="188.00" departLane="171279315#0_0" departPos="5.10" departSpeed="0.00" departDelay="0.00" arrival="296.00" arrivalLane="472255624_0" arrivalPos="20.69" arrivalSpeed="12.22" duration="108.00" routeLength="952.28" waitSteps="0" timeLoss="11.94" rerouteNo="0" devices="tripinfo_188" vType="DEFAULT_VEHTYPE" speedFactor="1.00" vaporized=""/>
    <tripinfo id="4" depart="4.00" departLane="158604481#7_0" departPos="5.10" departSpeed="0.00" departDelay="0.00" arrival="299.00" arrivalLane="158607002#0_0" arrivalPos="199.00" arrivalSpeed="10.06" duration="295.00" routeLength="3271.53" waitSteps="0" timeLoss="29.80" rerouteNo="0" devices="tripinfo_4" vType="DEFAULT_VEHTYPE" speedFactor="1.00" vaporized=""/>
    <tripinfo id="129" depart="129.00" departLane="158621099#5_0" departPos="5.10" departSpeed="0.00" departDelay="0.00" arrival="299.00" arrivalLane="679304328_0" arrivalPos="103.24" arrivalSpeed="7.66" duration="170.00" routeLength="1547.90" waitSteps="2" timeLoss="22.26" rerouteNo="0" devices="tripinfo_129" vType="DEFAULT_VEHTYPE" speedFactor="1.00" vaporized=""/>
    <tripinfo id="97" depart="97.00" departLane="-152411187#5_0" departPos="0.11" departSpeed="0.00" departDelay="0.00" arrival="299.00" arrivalLane="396330578_0" arrivalPos="0.20" arrivalSpeed="16.78" duration="202.00" routeLength="2246.21" waitSteps="0" timeLoss="22.74" rerouteNo="0" devices="tripinfo_97" vType="DEFAULT_VEHTYPE" speedFactor="1.00" vaporized=""/>
    <tripinfo id="135" depart="135.00" departLane="34239676#0_0" departPos="5.10" departSpeed="0.00" departDelay="0.00" arrival="305.00" arrivalLane="171279286#5_1" arrivalPos="15.59" arrivalSpeed="10.90" duration="170.00" routeLength="1693.50" waitSteps="1" timeLoss="31.77" rerouteNo="0" devices="tripinfo_135" vType="DEFAULT_VEHTYPE" speedFactor="1.00" vaporized=""/>
    <tripinfo id="45" depart="45.00" departLane="-263536599#0_0" departPos="5.10" departSpeed="0.00" departDelay="0.00" arrival="308.00" arrivalLane="158607008#1_0" arrivalPos="53.22" arrivalSpeed="10.93" duration="263.00" routeLength="2526.14" waitSteps="48" timeLoss="79.73" rerouteNo="0" devices="tripinfo_45" vType="DEFAULT_VEHTYPE" speedFactor="1.00" vaporized=""/>
    <tripinfo id="61" depart="61.00" departLane="396392024_0" departPos="0.30" departSpeed="0.00" departDelay="0.00" arrival="309.00" arrivalLane="395683654_0" arrivalPos="9.73" arrivalSpeed="13.39" duration="248.00" routeLength="2776.78" waitSteps="0" timeLoss="23.70" rerouteNo="0" devices="tripinfo_61" vType="DEFAULT_VEHTYPE" speedFactor="1.00" vaporized=""/>
    <tripinfo id="136" depart="136.00" departLane="171279289#1_0" departPos="1.62" departSpeed="0.00" departDelay="0.00" arrival="312.00" arrivalLane="182700082_0" arrivalPos="0.10" arrivalSpeed="21.94" duration="176.00" routeLength="1991.29" waitSteps="2" timeLoss="27.45" rerouteNo="0" devices="tripinfo_136" vType="DEFAULT_VEHTYPE" speedFactor="1.00" vaporized=""/>
    <tripinfo id="102" depart="102.00" departLane="171279310_0" departPos="5.10" departSpeed="0.00" departDelay="0.00" arrival="313.00" arrivalLane="158604480#2_0" arrivalPos="60.26" arrivalSpeed="10.81" duration="211.00" routeLength="2178.60" waitSteps="0" timeLoss="22.37" rerouteNo="0" devices="tripinfo_102" vType="DEFAULT_VEHTYPE" speedFactor="1.00" vaporized=""/>
    <tripinfo id="1" depart="1.00" departLane="-224370082_0" departPos="0.20" departSpeed="0.00" departDelay="0.00" arrival="316.00" arrivalLane="432589841#3_0" arrivalPos="35.23" arrivalSpeed="12.93" duration="315.00" routeLength="3488.89" waitSteps="10" timeLoss="41.41" rerouteNo="0" devices="tripinfo_1" vType="DEFAULT_VEHTYPE" speedFactor="1.00" vaporized=""/>
    <tripinfo id="165" depart="165.00" departLane="-296586084#1_0" departPos="5.10" departSpeed="0.00" departDelay="0.00" arrival="316.00" arrivalLane="76840171#1_0" arrivalPos="130.72" arrivalSpeed="10.13" duration="151.00" routeLength="1507.38" waitSteps="5" timeLoss="23.18" rerouteNo="0" devices="tripinfo_165" vType="DEFAULT_VEHTYPE" speedFactor="1.00" vaporized=""/>
    <tripinfo id="243" depart="243.00" departLane="396357992#0_0" departPos="5.10" departSpeed="0.00" departDelay="0.00" arrival="318.00" arrivalLane="381723748#0_1" arrivalPos="27.63" arrivalSpeed="13.32" duration="75.00" routeLength="864.57" waitSteps="0" timeLoss="12.05" rerouteNo="0" devices="tripinfo_243" vType="DEFAULT_VEHTYPE" speedFactor="1.00" vaporized=""/>
    <tripinfo id="138" depart="138.00" departLane="296584565_0" departPos="5.10" departSpeed="0.00" departDelay="0.00" arrival="318.00" arrivalLane="-34856758_0" arrivalPos="120.33" arrivalSpeed="13.81" duration="180.00" routeLength="2003.18" waitSteps="3" timeLoss="33.87" rerouteNo="0" devices="tripinfo_138" vType="DEFAULT_VEHTYPE" speedFactor="1.00" vaporized=""/>
    <tripinfo id="120" depart="120.00" departLane="79210046#5_0" departPos="5.10" departSpeed="0.00" departDelay="0.00" arrival="322.00" arrivalLane="495777432_0" arrivalPos="120.03" arrivalSpeed="12.91" duration="202.00" routeLength="2154.02" waitSteps="19" timeLoss="45.80" rerouteNo="0" devices="tripinfo_120" vType="DEFAULT_VEHTYPE" speedFactor="1.00" vaporized=""/>
    <tripinfo id="198" depart="198.00" departLane="-151615196#0_0" departPos="5.10" departSpeed="0.00" departDelay="0.00" arrival="323.00" arrivalLane="153926003_0" arrivalPos="9.71" arrivalSpeed="12.80" duration="125.00" routeLength="1198.97" waitSteps="5" timeLoss="25.97" rerouteNo="0" devices="tripinfo_198" vType="DEFAULT_VEHTYPE" speedFactor="1.00" vaporized=""/>
    <tripinfo id="74" depart="74.00" departLane="419270099_0" departPos="5.10" departSpeed="0.00" departDelay="0.00" arrival="324.00" arrivalLane="158604480#7_1" arrivalPos="39.87" arrivalSpeed="11.03" duration="250.00" routeLength="2570.25" waitSteps="0" timeLoss="25.08" rerouteNo="0" devices="tripinfo_74" vType="DEFAULT_VEHTYPE" speedFactor="1.00" vaporized=""/>
    <tripinfo id="16" depart="16.00" departLane="396392017_0" departPos="4.59" departSpeed="0.00" departDelay="0.00" arrival="327.00" arrivalLane="158621099#21_0" arrivalPos="3.75" arrivalSpeed="10.27" duration="311.00" routeLength="3293.53" waitSteps="3" timeLoss="39.39" rerouteNo="0" devices="tripinfo_16" vType="DEFAULT_VEHTYPE" speedFactor="1.00" vaporized=""/>
    <tripinfo id="267" depart="267.00" departLane="-152411187#3_0" departPos="5.10" departSpeed="0.00" departDelay="0.00" arrival="328.00" arrivalLane="395694987_0" arrivalPos="15.64" arrivalSpeed="14.28" duration="61.00" routeLength="546.14" waitSteps="1" timeLoss="15.77" rerouteNo="0" devices="tripinfo_267" vType="DEFAULT_VEHTYPE" speedFactor="1.00" vaporized=""/>
    <tripinfo id="175" depart="175.00" departLane="171279286#1_0" departPos="5.10" departSpeed="0.00" departDelay="0.00" arrival="337.00" arrivalLane="34856758_0" arrivalPos="115.84" arrivalSpeed="13.58" duration="162.00" routeLength="1879.89" waitSteps="0" timeLoss="29.01" rerouteNo="0" devices="tripinfo_175" vType="DEFAULT_VEHTYPE" speedFactor="1.00" vaporized=""/>
    <tripinfo id="25" depart="25.00" departLane="498974902_0" departPos="0.20" departSpeed="0.00" departDelay="0.00" arrival="338.00" arrivalLane="-152411187#5_0" arrivalPos="0.11" arrivalSpeed="7.53" duration="313.00" routeLength="2845.65" waitSteps="36" timeLoss="75.07" rerouteNo="0" devices="tripinfo_25" vType="DEFAULT_VEHTYPE" speedFactor="1.00" vaporized=""/>
    <tripinfo id="192" depart="192.00" departLane="296586087#9_0" departPos="5.10" departSpeed="0.00" departDelay="0.00" arrival="339.00" arrivalLane="296586087#2_0" arrivalPos="8.59" arrivalSpeed="10.43" duration="147.00" routeLength="1478.43" waitSteps="0" timeLoss="18.67" rerouteNo="0" devices="tripinfo_192" vType="DEFAULT_VEHTYPE" speedFactor="1.00" vaporized=""/>
    <tripinfo id="293" depart="293.00" departLane="44954444_0" departPos="5.10" departSpeed="0.00" departDelay="0.00" arrival="346.00" arrivalLane="296585977#4_0" arrivalPos="431.41" arrivalSpeed="10.77" duration="53.00" routeLength="511.70" waitSteps="0" timeLoss="6.16" rerouteNo="0" devices="tripinfo_293" vType="DEFAULT_VEHTYPE" speedFactor="1.00" vaporized=""/>
    <tripinfo id="289" depart="289.00" departLane="34239673_0" departPos="5.10" departSpeed="0.00" departDelay="0.00" arrival="351.00" arrivalLane="158604481#2_0" arrivalPos="3.74" arrivalSpeed="10.54" duration="62.00" routeLength="587.15" waitSteps="3" timeLoss="19.59" rerouteNo="0" devices="tripinfo_289" vType="DEFAULT_VEHTYPE" speedFactor="1.00" vaporized=""/>
    <tripinfo id="272" depart="272.00" departLane="263536599#1_0" departPos="5.10" departSpeed="0.00" departDelay="0.00" arrival="351.00" arrivalLane="-147921556#0_0" arrivalPos="248.29" arrivalSpeed="12.69" duration="79.00" routeLength="804.90" waitSteps="0" timeLoss="15.33" rerouteNo="0" devices="tripinfo_272" vType="DEFAULT_VEHTYPE" speedFactor="1.00" vaporized=""/>
    <tripinfo id="66" depart="66.00" departLane="396360053_0" departPos="4.41" departSpeed="0.00" departDelay="0.00" arrival="353.00" arrivalLane="158783877#0_0" arrivalPos="53.19" arrivalSpeed="8.09" duration="287.00" routeLength="3205.34" waitSteps="0" timeLoss="28.30" rerouteNo="0" devices="tripinfo_66" vType="DEFAULT_VEHTYPE" speedFactor="1.00" vaporized=""/>
    <tripinfo id="88" depart="88.00" departLane="171279294#1_0" departPos="5.10" departSpeed="0.00" departDelay="0.00" arrival="362.00" arrivalLane="396355608#1_0" arrivalPos="39.22" arrivalSpeed="13.66" duration="274.00" routeLength="2810.26" waitSteps="24" timeLoss="58.49" rerouteNo="0" devices="tripinfo_88" vType="DEFAULT_VEHTYPE" speedFactor="1.00" vaporized=""/>
    <tripinfo id="304" depart="304.00" departLane="34239670#1_0" departPos="5.10" departSpeed="0.00" departDelay="0.00" arrival="362.00" arrivalLane="-80789841#3_0" arrivalPos="4.48" arrivalSpeed="13.49" duration="58.00" routeLength="669.96" waitSteps="0" timeLoss="8.18" rerouteNo="0" devices="tripinfo_304" vType="DEFAULT_VEHTYPE" speedFactor="1.00" vaporized=""/>
    <tripinfo id="355" depart="355.00" departLane="155225412#2_0" departPos="5.10" departSpeed="0.00" departDelay="0.00" arrival="367.00" arrivalLane="-147921607_0" arrivalPos="84.53" arrivalSpeed="13.06" duration="12.00" routeLength="119.22" waitSteps="0" timeLoss="3.11" rerouteNo="0" devices="tripinfo_355" vType="DEFAULT_VEHTYPE" speedFactor="1.00" vaporized=""/>
    <tripinfo id="197" depart="197.00" departLane="147278379_0" departPos="0.20" departSpeed="0.00" departDelay="0.00" arrival="368.00" arrivalLane="153489160#5_0" arrivalPos="8.93" arrivalSpeed="21.67" duration="171.00" routeLength="1907.90" waitSteps="0" timeLoss="18.68" rerouteNo="0" devices="tripinfo_197" vType="DEFAULT_VEHTYPE" speedFactor="1.00" vaporized=""/>